cycro-cluster.lmp (written by ASE) 

1280 	 atoms 
2  atom types
0.0                  21.724  xlo xhi
0.0                  21.724  ylo yhi
0.0      54.310000000000002  zlo zhi


Masses

1 72.63
2 28.085


Atoms 

     1   2                       0                       0                       0
     2   2                 1.35775                 1.35775                 1.35775
     3   2                       0                  2.7155                  2.7155
     4   2                 1.35775      4.0732499999999998      4.0732499999999998
     5   2                  2.7155                       0                  2.7155
     6   2      4.0732499999999998                 1.35775      4.0732499999999998
     7   2                  2.7155                  2.7155                       0
     8   2      4.0732499999999998      4.0732499999999998                 1.35775
     9   2                       0                       0                   5.431
    10   2                 1.35775                 1.35775      6.7887500000000003
    11   2                       0                  2.7155      8.1464999999999996
    12   2                 1.35775      4.0732499999999998       9.504249999999999
    13   2                  2.7155                       0      8.1464999999999996
    14   2      4.0732499999999998                 1.35775       9.504249999999999
    15   2                  2.7155                  2.7155                   5.431
    16   2      4.0732499999999998      4.0732499999999998      6.7887500000000003
    17   2                       0                       0                  10.862
    18   2                 1.35775                 1.35775      12.219749999999999
    19   2                       0                  2.7155      13.577500000000001
    20   2                 1.35775      4.0732499999999998                14.93525
    21   2                  2.7155                       0      13.577500000000001
    22   2      4.0732499999999998                 1.35775                14.93525
    23   2                  2.7155                  2.7155                  10.862
    24   2      4.0732499999999998      4.0732499999999998      12.219749999999999
    25   2                       0                       0      16.292999999999999
    26   2                 1.35775                 1.35775      17.650749999999999
    27   2                       0                  2.7155      19.008499999999998
    28   2                 1.35775      4.0732499999999998      20.366250000000001
    29   2                  2.7155                       0      19.008499999999998
    30   2      4.0732499999999998                 1.35775      20.366250000000001
    31   2                  2.7155                  2.7155      16.292999999999999
    32   2      4.0732499999999998      4.0732499999999998      17.650749999999999
    33   2                       0                       0                  21.724
    34   2                 1.35775                 1.35775                23.08175
    35   2                       0                  2.7155      24.439499999999999
    36   2                 1.35775      4.0732499999999998      25.797249999999998
    37   2                  2.7155                       0      24.439499999999999
    38   2      4.0732499999999998                 1.35775      25.797249999999998
    39   2                  2.7155                  2.7155                  21.724
    40   2      4.0732499999999998      4.0732499999999998                23.08175
    41   2                       0                       0      27.155000000000001
    42   2                 1.35775                 1.35775                28.51275
    43   2                       0                  2.7155                 29.8705
    44   2                 1.35775      4.0732499999999998      31.228250000000003
    45   2                  2.7155                       0                 29.8705
    46   2      4.0732499999999998                 1.35775      31.228250000000003
    47   2                  2.7155                  2.7155      27.155000000000001
    48   2      4.0732499999999998      4.0732499999999998                28.51275
    49   2                       0                       0      32.585999999999999
    50   2                 1.35775                 1.35775      33.943750000000001
    51   2                       0                  2.7155      35.301499999999997
    52   2                 1.35775      4.0732499999999998                36.65925
    53   2                  2.7155                       0      35.301499999999997
    54   2      4.0732499999999998                 1.35775                36.65925
    55   2                  2.7155                  2.7155      32.585999999999999
    56   2      4.0732499999999998      4.0732499999999998      33.943750000000001
    57   2                       0                       0      38.017000000000003
    58   2                 1.35775                 1.35775      39.374750000000006
    59   2                       0                  2.7155      40.732500000000002
    60   2                 1.35775      4.0732499999999998      42.090250000000005
    61   2                  2.7155                       0      40.732500000000002
    62   2      4.0732499999999998                 1.35775      42.090250000000005
    63   2                  2.7155                  2.7155      38.017000000000003
    64   2      4.0732499999999998      4.0732499999999998      39.374750000000006
    65   2                       0                       0                  43.448
    66   2                 1.35775                 1.35775      44.805750000000003
    67   2                       0                  2.7155      46.163499999999999
    68   2                 1.35775      4.0732499999999998      47.521250000000002
    69   2                  2.7155                       0      46.163499999999999
    70   2      4.0732499999999998                 1.35775      47.521250000000002
    71   2                  2.7155                  2.7155                  43.448
    72   2      4.0732499999999998      4.0732499999999998      44.805750000000003
    73   2                       0                       0      48.878999999999998
    74   2                 1.35775                 1.35775      50.236750000000001
    75   2                       0                  2.7155      51.594499999999996
    76   2                 1.35775      4.0732499999999998      52.952249999999999
    77   2                  2.7155                       0      51.594499999999996
    78   2      4.0732499999999998                 1.35775      52.952249999999999
    79   2                  2.7155                  2.7155      48.878999999999998
    80   2      4.0732499999999998      4.0732499999999998      50.236750000000001
    81   2                       0                   5.431                       0
    82   2                 1.35775      6.7887500000000003                 1.35775
    83   2                       0      8.1464999999999996                  2.7155
    84   2                 1.35775       9.504249999999999      4.0732499999999998
    85   2                  2.7155                   5.431                  2.7155
    86   2      4.0732499999999998      6.7887500000000003      4.0732499999999998
    87   2                  2.7155      8.1464999999999996                       0
    88   2      4.0732499999999998       9.504249999999999                 1.35775
    89   2                       0                   5.431                   5.431
    90   2                 1.35775      6.7887500000000003      6.7887500000000003
    91   2                       0      8.1464999999999996      8.1464999999999996
    92   2                 1.35775       9.504249999999999       9.504249999999999
    93   2                  2.7155                   5.431      8.1464999999999996
    94   2      4.0732499999999998      6.7887500000000003       9.504249999999999
    95   2                  2.7155      8.1464999999999996                   5.431
    96   2      4.0732499999999998       9.504249999999999      6.7887500000000003
    97   2                       0                   5.431                  10.862
    98   2                 1.35775      6.7887500000000003      12.219749999999999
    99   2                       0      8.1464999999999996      13.577500000000001
   100   2                 1.35775       9.504249999999999                14.93525
   101   2                  2.7155                   5.431      13.577500000000001
   102   2      4.0732499999999998      6.7887500000000003                14.93525
   103   2                  2.7155      8.1464999999999996                  10.862
   104   2      4.0732499999999998       9.504249999999999      12.219749999999999
   105   2                       0                   5.431      16.292999999999999
   106   2                 1.35775      6.7887500000000003      17.650749999999999
   107   2                       0      8.1464999999999996      19.008499999999998
   108   2                 1.35775       9.504249999999999      20.366250000000001
   109   2                  2.7155                   5.431      19.008499999999998
   110   2      4.0732499999999998      6.7887500000000003      20.366250000000001
   111   2                  2.7155      8.1464999999999996      16.292999999999999
   112   2      4.0732499999999998       9.504249999999999      17.650749999999999
   113   2                       0                   5.431                  21.724
   114   2                 1.35775      6.7887500000000003                23.08175
   115   2                       0      8.1464999999999996      24.439499999999999
   116   2                 1.35775       9.504249999999999      25.797249999999998
   117   2                  2.7155                   5.431      24.439499999999999
   118   2      4.0732499999999998      6.7887500000000003      25.797249999999998
   119   2                  2.7155      8.1464999999999996                  21.724
   120   1      4.0732499999999998       9.504249999999999                23.08175
   121   2                       0                   5.431      27.155000000000001
   122   2                 1.35775      6.7887500000000003                28.51275
   123   2                       0      8.1464999999999996                 29.8705
   124   2                 1.35775       9.504249999999999      31.228250000000003
   125   2                  2.7155                   5.431                 29.8705
   126   2      4.0732499999999998      6.7887500000000003      31.228250000000003
   127   2                  2.7155      8.1464999999999996      27.155000000000001
   128   1      4.0732499999999998       9.504249999999999                28.51275
   129   2                       0                   5.431      32.585999999999999
   130   2                 1.35775      6.7887500000000003      33.943750000000001
   131   2                       0      8.1464999999999996      35.301499999999997
   132   2                 1.35775       9.504249999999999                36.65925
   133   2                  2.7155                   5.431      35.301499999999997
   134   2      4.0732499999999998      6.7887500000000003                36.65925
   135   2                  2.7155      8.1464999999999996      32.585999999999999
   136   2      4.0732499999999998       9.504249999999999      33.943750000000001
   137   2                       0                   5.431      38.017000000000003
   138   2                 1.35775      6.7887500000000003      39.374750000000006
   139   2                       0      8.1464999999999996      40.732500000000002
   140   2                 1.35775       9.504249999999999      42.090250000000005
   141   2                  2.7155                   5.431      40.732500000000002
   142   2      4.0732499999999998      6.7887500000000003      42.090250000000005
   143   2                  2.7155      8.1464999999999996      38.017000000000003
   144   2      4.0732499999999998       9.504249999999999      39.374750000000006
   145   2                       0                   5.431                  43.448
   146   2                 1.35775      6.7887500000000003      44.805750000000003
   147   2                       0      8.1464999999999996      46.163499999999999
   148   2                 1.35775       9.504249999999999      47.521250000000002
   149   2                  2.7155                   5.431      46.163499999999999
   150   2      4.0732499999999998      6.7887500000000003      47.521250000000002
   151   2                  2.7155      8.1464999999999996                  43.448
   152   2      4.0732499999999998       9.504249999999999      44.805750000000003
   153   2                       0                   5.431      48.878999999999998
   154   2                 1.35775      6.7887500000000003      50.236750000000001
   155   2                       0      8.1464999999999996      51.594499999999996
   156   2                 1.35775       9.504249999999999      52.952249999999999
   157   2                  2.7155                   5.431      51.594499999999996
   158   2      4.0732499999999998      6.7887500000000003      52.952249999999999
   159   2                  2.7155      8.1464999999999996      48.878999999999998
   160   2      4.0732499999999998       9.504249999999999      50.236750000000001
   161   2                       0                  10.862                       0
   162   2                 1.35775      12.219749999999999                 1.35775
   163   2                       0      13.577500000000001                  2.7155
   164   2                 1.35775                14.93525      4.0732499999999998
   165   2                  2.7155                  10.862                  2.7155
   166   2      4.0732499999999998      12.219749999999999      4.0732499999999998
   167   2                  2.7155      13.577500000000001                       0
   168   2      4.0732499999999998                14.93525                 1.35775
   169   2                       0                  10.862                   5.431
   170   2                 1.35775      12.219749999999999      6.7887500000000003
   171   2                       0      13.577500000000001      8.1464999999999996
   172   2                 1.35775                14.93525       9.504249999999999
   173   2                  2.7155                  10.862      8.1464999999999996
   174   2      4.0732499999999998      12.219749999999999       9.504249999999999
   175   2                  2.7155      13.577500000000001                   5.431
   176   2      4.0732499999999998                14.93525      6.7887500000000003
   177   2                       0                  10.862                  10.862
   178   2                 1.35775      12.219749999999999      12.219749999999999
   179   2                       0      13.577500000000001      13.577500000000001
   180   2                 1.35775                14.93525                14.93525
   181   2                  2.7155                  10.862      13.577500000000001
   182   2      4.0732499999999998      12.219749999999999                14.93525
   183   2                  2.7155      13.577500000000001                  10.862
   184   2      4.0732499999999998                14.93525      12.219749999999999
   185   2                       0                  10.862      16.292999999999999
   186   2                 1.35775      12.219749999999999      17.650749999999999
   187   2                       0      13.577500000000001      19.008499999999998
   188   2                 1.35775                14.93525      20.366250000000001
   189   2                  2.7155                  10.862      19.008499999999998
   190   1      4.0732499999999998      12.219749999999999      20.366250000000001
   191   2                  2.7155      13.577500000000001      16.292999999999999
   192   2      4.0732499999999998                14.93525      17.650749999999999
   193   2                       0                  10.862                  21.724
   194   2                 1.35775      12.219749999999999                23.08175
   195   2                       0      13.577500000000001      24.439499999999999
   196   2                 1.35775                14.93525      25.797249999999998
   197   1                  2.7155                  10.862      24.439499999999999
   198   1      4.0732499999999998      12.219749999999999      25.797249999999998
   199   2                  2.7155      13.577500000000001                  21.724
   200   2      4.0732499999999998                14.93525                23.08175
   201   2                       0                  10.862      27.155000000000001
   202   2                 1.35775      12.219749999999999                28.51275
   203   2                       0      13.577500000000001                 29.8705
   204   2                 1.35775                14.93525      31.228250000000003
   205   1                  2.7155                  10.862                 29.8705
   206   1      4.0732499999999998      12.219749999999999      31.228250000000003
   207   2                  2.7155      13.577500000000001      27.155000000000001
   208   2      4.0732499999999998                14.93525                28.51275
   209   2                       0                  10.862      32.585999999999999
   210   2                 1.35775      12.219749999999999      33.943750000000001
   211   2                       0      13.577500000000001      35.301499999999997
   212   2                 1.35775                14.93525                36.65925
   213   2                  2.7155                  10.862      35.301499999999997
   214   2      4.0732499999999998      12.219749999999999                36.65925
   215   2                  2.7155      13.577500000000001      32.585999999999999
   216   2      4.0732499999999998                14.93525      33.943750000000001
   217   2                       0                  10.862      38.017000000000003
   218   2                 1.35775      12.219749999999999      39.374750000000006
   219   2                       0      13.577500000000001      40.732500000000002
   220   2                 1.35775                14.93525      42.090250000000005
   221   2                  2.7155                  10.862      40.732500000000002
   222   2      4.0732499999999998      12.219749999999999      42.090250000000005
   223   2                  2.7155      13.577500000000001      38.017000000000003
   224   2      4.0732499999999998                14.93525      39.374750000000006
   225   2                       0                  10.862                  43.448
   226   2                 1.35775      12.219749999999999      44.805750000000003
   227   2                       0      13.577500000000001      46.163499999999999
   228   2                 1.35775                14.93525      47.521250000000002
   229   2                  2.7155                  10.862      46.163499999999999
   230   2      4.0732499999999998      12.219749999999999      47.521250000000002
   231   2                  2.7155      13.577500000000001                  43.448
   232   2      4.0732499999999998                14.93525      44.805750000000003
   233   2                       0                  10.862      48.878999999999998
   234   2                 1.35775      12.219749999999999      50.236750000000001
   235   2                       0      13.577500000000001      51.594499999999996
   236   2                 1.35775                14.93525      52.952249999999999
   237   2                  2.7155                  10.862      51.594499999999996
   238   2      4.0732499999999998      12.219749999999999      52.952249999999999
   239   2                  2.7155      13.577500000000001      48.878999999999998
   240   2      4.0732499999999998                14.93525      50.236750000000001
   241   2                       0      16.292999999999999                       0
   242   2                 1.35775      17.650749999999999                 1.35775
   243   2                       0      19.008499999999998                  2.7155
   244   2                 1.35775      20.366250000000001      4.0732499999999998
   245   2                  2.7155      16.292999999999999                  2.7155
   246   2      4.0732499999999998      17.650749999999999      4.0732499999999998
   247   2                  2.7155      19.008499999999998                       0
   248   2      4.0732499999999998      20.366250000000001                 1.35775
   249   2                       0      16.292999999999999                   5.431
   250   2                 1.35775      17.650749999999999      6.7887500000000003
   251   2                       0      19.008499999999998      8.1464999999999996
   252   2                 1.35775      20.366250000000001       9.504249999999999
   253   2                  2.7155      16.292999999999999      8.1464999999999996
   254   2      4.0732499999999998      17.650749999999999       9.504249999999999
   255   2                  2.7155      19.008499999999998                   5.431
   256   2      4.0732499999999998      20.366250000000001      6.7887500000000003
   257   2                       0      16.292999999999999                  10.862
   258   2                 1.35775      17.650749999999999      12.219749999999999
   259   2                       0      19.008499999999998      13.577500000000001
   260   2                 1.35775      20.366250000000001                14.93525
   261   2                  2.7155      16.292999999999999      13.577500000000001
   262   2      4.0732499999999998      17.650749999999999                14.93525
   263   2                  2.7155      19.008499999999998                  10.862
   264   2      4.0732499999999998      20.366250000000001      12.219749999999999
   265   2                       0      16.292999999999999      16.292999999999999
   266   2                 1.35775      17.650749999999999      17.650749999999999
   267   2                       0      19.008499999999998      19.008499999999998
   268   2                 1.35775      20.366250000000001      20.366250000000001
   269   2                  2.7155      16.292999999999999      19.008499999999998
   270   2      4.0732499999999998      17.650749999999999      20.366250000000001
   271   2                  2.7155      19.008499999999998      16.292999999999999
   272   2      4.0732499999999998      20.366250000000001      17.650749999999999
   273   2                       0      16.292999999999999                  21.724
   274   2                 1.35775      17.650749999999999                23.08175
   275   2                       0      19.008499999999998      24.439499999999999
   276   2                 1.35775      20.366250000000001      25.797249999999998
   277   2                  2.7155      16.292999999999999      24.439499999999999
   278   2      4.0732499999999998      17.650749999999999      25.797249999999998
   279   2                  2.7155      19.008499999999998                  21.724
   280   2      4.0732499999999998      20.366250000000001                23.08175
   281   2                       0      16.292999999999999      27.155000000000001
   282   2                 1.35775      17.650749999999999                28.51275
   283   2                       0      19.008499999999998                 29.8705
   284   2                 1.35775      20.366250000000001      31.228250000000003
   285   2                  2.7155      16.292999999999999                 29.8705
   286   2      4.0732499999999998      17.650749999999999      31.228250000000003
   287   2                  2.7155      19.008499999999998      27.155000000000001
   288   2      4.0732499999999998      20.366250000000001                28.51275
   289   2                       0      16.292999999999999      32.585999999999999
   290   2                 1.35775      17.650749999999999      33.943750000000001
   291   2                       0      19.008499999999998      35.301499999999997
   292   2                 1.35775      20.366250000000001                36.65925
   293   2                  2.7155      16.292999999999999      35.301499999999997
   294   2      4.0732499999999998      17.650749999999999                36.65925
   295   2                  2.7155      19.008499999999998      32.585999999999999
   296   2      4.0732499999999998      20.366250000000001      33.943750000000001
   297   2                       0      16.292999999999999      38.017000000000003
   298   2                 1.35775      17.650749999999999      39.374750000000006
   299   2                       0      19.008499999999998      40.732500000000002
   300   2                 1.35775      20.366250000000001      42.090250000000005
   301   2                  2.7155      16.292999999999999      40.732500000000002
   302   2      4.0732499999999998      17.650749999999999      42.090250000000005
   303   2                  2.7155      19.008499999999998      38.017000000000003
   304   2      4.0732499999999998      20.366250000000001      39.374750000000006
   305   2                       0      16.292999999999999                  43.448
   306   2                 1.35775      17.650749999999999      44.805750000000003
   307   2                       0      19.008499999999998      46.163499999999999
   308   2                 1.35775      20.366250000000001      47.521250000000002
   309   2                  2.7155      16.292999999999999      46.163499999999999
   310   2      4.0732499999999998      17.650749999999999      47.521250000000002
   311   2                  2.7155      19.008499999999998                  43.448
   312   2      4.0732499999999998      20.366250000000001      44.805750000000003
   313   2                       0      16.292999999999999      48.878999999999998
   314   2                 1.35775      17.650749999999999      50.236750000000001
   315   2                       0      19.008499999999998      51.594499999999996
   316   2                 1.35775      20.366250000000001      52.952249999999999
   317   2                  2.7155      16.292999999999999      51.594499999999996
   318   2      4.0732499999999998      17.650749999999999      52.952249999999999
   319   2                  2.7155      19.008499999999998      48.878999999999998
   320   2      4.0732499999999998      20.366250000000001      50.236750000000001
   321   2                   5.431                       0                       0
   322   2      6.7887500000000003                 1.35775                 1.35775
   323   2                   5.431                  2.7155                  2.7155
   324   2      6.7887500000000003      4.0732499999999998      4.0732499999999998
   325   2      8.1464999999999996                       0                  2.7155
   326   2       9.504249999999999                 1.35775      4.0732499999999998
   327   2      8.1464999999999996                  2.7155                       0
   328   2       9.504249999999999      4.0732499999999998                 1.35775
   329   2                   5.431                       0                   5.431
   330   2      6.7887500000000003                 1.35775      6.7887500000000003
   331   2                   5.431                  2.7155      8.1464999999999996
   332   2      6.7887500000000003      4.0732499999999998       9.504249999999999
   333   2      8.1464999999999996                       0      8.1464999999999996
   334   2       9.504249999999999                 1.35775       9.504249999999999
   335   2      8.1464999999999996                  2.7155                   5.431
   336   2       9.504249999999999      4.0732499999999998      6.7887500000000003
   337   2                   5.431                       0                  10.862
   338   2      6.7887500000000003                 1.35775      12.219749999999999
   339   2                   5.431                  2.7155      13.577500000000001
   340   2      6.7887500000000003      4.0732499999999998                14.93525
   341   2      8.1464999999999996                       0      13.577500000000001
   342   2       9.504249999999999                 1.35775                14.93525
   343   2      8.1464999999999996                  2.7155                  10.862
   344   2       9.504249999999999      4.0732499999999998      12.219749999999999
   345   2                   5.431                       0      16.292999999999999
   346   2      6.7887500000000003                 1.35775      17.650749999999999
   347   2                   5.431                  2.7155      19.008499999999998
   348   2      6.7887500000000003      4.0732499999999998      20.366250000000001
   349   2      8.1464999999999996                       0      19.008499999999998
   350   2       9.504249999999999                 1.35775      20.366250000000001
   351   2      8.1464999999999996                  2.7155      16.292999999999999
   352   2       9.504249999999999      4.0732499999999998      17.650749999999999
   353   2                   5.431                       0                  21.724
   354   2      6.7887500000000003                 1.35775                23.08175
   355   2                   5.431                  2.7155      24.439499999999999
   356   2      6.7887500000000003      4.0732499999999998      25.797249999999998
   357   2      8.1464999999999996                       0      24.439499999999999
   358   2       9.504249999999999                 1.35775      25.797249999999998