Ge Ni structure				
				
 1376 atoms				
 2 atom types				
 0.0	22.7016	 xlo xhi	
 0.0	22.7016	 ylo yhi	
 0.0	81.76288 zlo zhi	
				
 Masses				
				
1 72.64				
2 58.6934				
				
 Atoms				
				
1	1	0	0	0
2	1	2.8377	2.8377	0
3	1	0	5.6754	0
4	1	2.8377	8.5131	0
5	1	0	11.3508	0
6	1	2.8377	14.1885	0
7	1	0	17.0262	0
8	1	2.8377	19.8639	0
9	1	5.6754	0	0
10	1	8.5131	2.8377	0
11	1	5.6754	5.6754	0
12	1	8.5131	8.5131	0
13	1	5.6754	11.3508	0
14	1	8.5131	14.1885	0
15	1	5.6754	17.0262	0
16	1	8.5131	19.8639	0
17	1	11.3508	0	0
18	1	14.1885	2.8377	0
19	1	11.3508	5.6754	0
20	1	14.1885	8.5131	0
21	1	11.3508	11.3508	0
22	1	14.1885	14.1885	0
23	1	11.3508	17.0262	0
24	1	14.1885	19.8639	0
25	1	17.0262	0	0
26	1	19.8639	2.8377	0
27	1	17.0262	5.6754	0
28	1	19.8639	8.5131	0
29	1	17.0262	11.3508	0
30	1	19.8639	14.1885	0
31	1	17.0262	17.0262	0
32	1	19.8639	19.8639	0
33	1	1.41885	1.41885	1.276965
34	1	4.25655	4.25655	1.276965
35	1	1.41885	7.09425	1.276965
36	1	4.25655	9.93195	1.276965
37	1	1.41885	12.76965	1.276965
38	1	4.25655	15.60735	1.276965
39	1	1.41885	18.44505	1.276965
40	1	4.25655	21.28275	1.276965
41	1	7.09425	1.41885	1.276965
42	1	9.93195	4.25655	1.276965
43	1	7.09425	7.09425	1.276965
44	1	9.93195	9.93195	1.276965
45	1	7.09425	12.76965	1.276965
46	1	9.93195	15.60735	1.276965
47	1	7.09425	18.44505	1.276965
48	1	9.93195	21.28275	1.276965
49	1	12.76965	1.41885	1.276965
50	1	15.60735	4.25655	1.276965
51	1	12.76965	7.09425	1.276965
52	1	15.60735	9.93195	1.276965
53	1	12.76965	12.76965	1.276965
54	1	15.60735	15.60735	1.276965
55	1	12.76965	18.44505	1.276965
56	1	15.60735	21.28275	1.276965
57	1	18.44505	1.41885	1.276965
58	1	21.28275	4.25655	1.276965
59	1	18.44505	7.09425	1.276965
60	1	21.28275	9.93195	1.276965
61	1	18.44505	12.76965	1.276965
62	1	21.28275	15.60735	1.276965
63	1	18.44505	18.44505	1.276965
64	1	21.28275	21.28275	1.276965
65	1	0	2.8377	2.55393
66	1	2.8377	0	2.55393
67	1	0	8.5131	2.55393
68	1	2.8377	5.6754	2.55393
69	1	0	14.1885	2.55393
70	1	2.8377	11.3508	2.55393
71	1	0	19.8639	2.55393
72	1	2.8377	17.0262	2.55393
73	1	5.6754	2.8377	2.55393
74	1	8.5131	0	2.55393
75	1	5.6754	8.5131	2.55393
76	1	8.5131	5.6754	2.55393
77	1	5.6754	14.1885	2.55393
78	1	8.5131	11.3508	2.55393
79	1	5.6754	19.8639	2.55393
80	1	8.5131	17.0262	2.55393
81	1	11.3508	2.8377	2.55393
82	1	14.1885	0	2.55393
83	1	11.3508	8.5131	2.55393
84	1	14.1885	5.6754	2.55393
85	1	11.3508	14.1885	2.55393
86	1	14.1885	11.3508	2.55393
87	1	11.3508	19.8639	2.55393
88	1	14.1885	17.0262	2.55393
89	1	17.0262	2.8377	2.55393
90	1	19.8639	0	2.55393
91	1	17.0262	8.5131	2.55393
92	1	19.8639	5.6754	2.55393
93	1	17.0262	14.1885	2.55393
94	1	19.8639	11.3508	2.55393
95	1	17.0262	19.8639	2.55393
96	1	19.8639	17.0262	2.55393
97	1	4.25655	1.41885	3.830895
98	1	1.41885	4.25655	3.830895
99	1	4.25655	7.09425	3.830895
100	1	1.41885	9.93195	3.830895
101	1	4.25655	12.76965	3.830895
102	1	1.41885	15.60735	3.830895
103	1	4.25655	18.44505	3.830895
104	1	1.41885	21.28275	3.830895
105	1	9.93195	1.41885	3.830895
106	1	7.09425	4.25655	3.830895
107	1	9.93195	7.09425	3.830895
108	1	7.09425	9.93195	3.830895
109	1	9.93195	12.76965	3.830895
110	1	7.09425	15.60735	3.830895
111	1	9.93195	18.44505	3.830895
112	1	7.09425	21.28275	3.830895
113	1	15.60735	1.41885	3.830895
114	1	12.76965	4.25655	3.830895
115	1	15.60735	7.09425	3.830895
116	1	12.76965	9.93195	3.830895
117	1	15.60735	12.76965	3.830895
118	1	12.76965	15.60735	3.830895
119	1	15.60735	18.44505	3.830895
120	1	12.76965	21.28275	3.830895
121	1	21.28275	1.41885	3.830895
122	1	18.44505	4.25655	3.830895
123	1	21.28275	7.09425	3.830895
124	1	18.44505	9.93195	3.830895
125	1	21.28275	12.76965	3.830895
126	1	18.44505	15.60735	3.830895
127	1	21.28275	18.44505	3.830895
128	1	18.44505	21.28275	3.830895
129	1	0	0	5.10786
130	1	2.8377	2.8377	5.10786
131	1	0	5.6754	5.10786
132	1	2.8377	8.5131	5.10786
133	1	0	11.3508	5.10786
134	1	2.8377	14.1885	5.10786
135	1	0	17.0262	5.10786
136	1	2.8377	19.8639	5.10786
137	1	5.6754	0	5.10786
138	1	8.5131	2.8377	5.10786
139	1	5.6754	5.6754	5.10786
140	1	8.5131	8.5131	5.10786
141	1	5.6754	11.3508	5.10786
142	1	8.5131	14.1885	5.10786
143	1	5.6754	17.0262	5.10786
144	1	8.5131	19.8639	5.10786
145	1	11.3508	0	5.10786
146	1	14.1885	2.8377	5.10786
147	1	11.3508	5.6754	5.10786
148	1	14.1885	8.5131	5.10786
149	1	11.3508	11.3508	5.10786
150	1	14.1885	14.1885	5.10786
151	1	11.3508	17.0262	5.10786
152	1	14.1885	19.8639	5.10786
153	1	17.0262	0	5.10786
154	1	19.8639	2.8377	5.10786
155	1	17.0262	5.6754	5.10786
156	1	19.8639	8.5131	5.10786
157	1	17.0262	11.3508	5.10786
158	1	19.8639	14.1885	5.10786
159	1	17.0262	17.0262	5.10786
160	1	19.8639	19.8639	5.10786
161	1	1.41885	1.41885	6.384825
162	1	4.25655	4.25655	6.384825
163	1	1.41885	7.09425	6.384825
164	1	4.25655	9.93195	6.384825
165	1	1.41885	12.76965	6.384825
166	1	4.25655	15.60735	6.384825
167	1	1.41885	18.44505	6.384825
168	1	4.25655	21.28275	6.384825
169	1	7.09425	1.41885	6.384825
170	1	9.93195	4.25655	6.384825
171	1	7.09425	7.09425	6.384825
172	1	9.93195	9.93195	6.384825
173	1	7.09425	12.76965	6.384825
174	1	9.93195	15.60735	6.384825
175	1	7.09425	18.44505	6.384825
176	1	9.93195	21.28275	6.384825
177	1	12.76965	1.41885	6.384825
178	1	15.60735	4.25655	6.384825
179	1	12.76965	7.09425	6.384825
180	1	15.60735	9.93195	6.384825
181	1	12.76965	12.76965	6.384825
182	1	15.60735	15.60735	6.384825
183	1	12.76965	18.44505	6.384825
184	1	15.60735	21.28275	6.384825
185	1	18.44505	1.41885	6.384825
186	1	21.28275	4.25655	6.384825
187	1	18.44505	7.09425	6.384825
188	1	21.28275	9.93195	6.384825
189	1	18.44505	12.76965	6.384825
190	1	21.28275	15.60735	6.384825
191	1	18.44505	18.44505	6.384825
192	1	21.28275	21.28275	6.384825
193	1	0	2.8377	7.66179
194	1	2.8377	0	7.66179
195	1	0	8.5131	7.66179
196	1	2.8377	5.6754	7.66179
197	1	0	14.1885	7.66179
198	1	2.8377	11.3508	7.66179
199	1	0	19.8639	7.66179
200	1	2.8377	17.0262	7.66179
201	1	5.6754	2.8377	7.66179
202	1	8.5131	0	7.66179
203	1	5.6754	8.5131	7.66179
204	1	8.5131	5.6754	7.66179
205	1	5.6754	14.1885	7.66179
206	1	8.5131	11.3508	7.66179
207	1	5.6754	19.8639	7.66179
208	1	8.5131	17.0262	7.66179
209	1	11.3508	2.8377	7.66179
210	1	14.1885	0	7.66179
211	1	11.3508	8.5131	7.66179
212	1	14.1885	5.6754	7.66179
213	1	11.3508	14.1885	7.66179
214	1	14.1885	11.3508	7.66179
215	1	11.3508	19.8639	7.66179
216	1	14.1885	17.0262	7.66179
217	1	17.0262	2.8377	7.66179
218	1	19.8639	0	7.66179
219	1	17.0262	8.5131	7.66179
220	1	19.8639	5.6754	7.66179
221	1	17.0262	14.1885	7.66179
222	1	19.8639	11.3508	7.66179
223	1	17.0262	19.8639	7.66179
224	1	19.8639	17.0262	7.66179
225	1	4.25655	1.41885	8.938755
226	1	1.41885	4.25655	8.938755
227	1	4.25655	7.09425	8.938755
228	1	1.41885	9.93195	8.938755
229	1	4.25655	12.76965	8.938755
230	1	1.41885	15.60735	8.938755
231	1	4.25655	18.44505	8.938755
232	1	1.41885	21.28275	8.938755
233	1	9.93195	1.41885	8.938755
234	1	7.09425	4.25655	8.938755
235	1	9.93195	7.09425	8.938755
236	1	7.09425	9.93195	8.938755
237	1	9.93195	12.76965	8.938755
238	1	7.09425	15.60735	8.938755
239	1	9.93195	18.44505	8.938755
240	1	7.09425	21.28275	8.938755
241	1	15.60735	1.41885	8.938755
242	1	12.76965	4.25655	8.938755
243	1	15.60735	7.09425	8.938755
244	1	12.76965	9.93195	8.938755
245	1	15.60735	12.76965	8.938755
246	1	12.76965	15.60735	8.938755
247	1	15.60735	18.44505	8.938755
248	1	12.76965	21.28275	8.938755
249	1	21.28275	1.41885	8.938755
250	1	18.44505	4.25655	8.938755
251	1	21.28275	7.09425	8.938755
252	1	18.44505	9.93195	8.938755
253	1	21.28275	12.76965	8.938755
254	1	18.44505	15.60735	8.938755
255	1	21.28275	18.44505	8.938755
256	1	18.44505	21.28275	8.938755
257	1	0	0	10.21572
258	1	2.8377	2.8377	10.21572
259	1	0	5.6754	10.21572
260	1	2.8377	8.5131	10.21572
261	1	0	11.3508	10.21572
262	1	2.8377	14.1885	10.21572
263	1	0	17.0262	10.21572
264	1	2.8377	19.8639	10.21572
265	1	5.6754	0	10.21572
266	1	8.5131	2.8377	10.21572
267	1	5.6754	5.6754	10.21572
268	1	8.5131	8.5131	10.21572
269	1	5.6754	11.3508	10.21572
270	1	8.5131	14.1885	10.21572
271	1	5.6754	17.0262	10.21572
272	1	8.5131	19.8639	10.21572
273	1	11.3508	0	10.21572
274	1	14.1885	2.8377	10.21572
275	1	11.3508	5.6754	10.21572
276	1	14.1885	8.5131	10.21572
277	1	11.3508	11.3508	10.21572
278	1	14.1885	14.1885	10.21572
279	1	11.3508	17.0262	10.21572
280	1	14.1885	19.8639	10.21572
281	1	17.0262	0	10.21572
282	1	19.8639	2.8377	10.21572
283	1	17.0262	5.6754	10.21572
284	1	19.8639	8.5131	10.21572
285	1	17.0262	11.3508	10.21572
286	1	19.8639	14.1885	10.21572
287	1	17.0262	17.0262	10.21572
288	1	19.8639	19.8639	10.21572
289	1	1.41885	1.41885	11.492685
290	1	4.25655	4.25655	11.492685
291	1	1.41885	7.09425	11.492685
292	1	4.25655	9.93195	11.492685
293	1	1.41885	12.76965	11.492685
294	1	4.25655	15.60735	11.492685
295	1	1.41885	18.44505	11.492685
296	1	4.25655	21.28275	11.492685
297	1	7.09425	1.41885	11.492685
298	1	9.93195	4.25655	11.492685
299	1	7.09425	7.09425	11.492685
300	1	9.93195	9.93195	11.492685
301	1	7.09425	12.76965	11.492685
302	1	9.93195	15.60735	11.492685
303	1	7.09425	18.44505	11.492685
304	1	9.93195	21.28275	11.492685
305	1	12.76965	1.41885	11.492685
306	1	15.60735	4.25655	11.492685
307	1	12.76965	7.09425	11.492685
308	1	15.60735	9.93195	11.492685
309	1	12.76965	12.76965	11.492685
310	1	15.60735	15.60735	11.492685
311	1	12.76965	18.44505	11.492685
312	1	15.60735	21.28275	11.492685
313	1	18.44505	1.41885	11.492685
314	1	21.28275	4.25655	11.492685
315	1	18.44505	7.09425	11.492685
316	1	21.28275	9.93195	11.492685
317	1	18.44505	12.76965	11.492685
318	1	21.28275	15.60735	11.492685
319	1	18.44505	18.44505	11.492685
320	1	21.28275	21.28275	11.492685
321	1	0	2.8377	12.76965
322	1	2.8377	0	12.76965
323	1	0	8.5131	12.76965
324	1	2.8377	5.6754	12.76965
325	1	0	14.1885	12.76965
326	1	2.8377	11.3508	12.76965
327	1	0	19.8639	12.76965
328	1	2.8377	17.0262	12.76965
329	1	5.6754	2.8377	12.76965
330	1	8.5131	0	12.76965
331	1	5.6754	8.5131	12.76965
332	1	8.5131	5.6754	12.76965
333	1	5.6754	14.1885	12.76965
334	1	8.5131	11.3508	12.76965
335	1	5.6754	19.8639	12.76965
336	1	8.5131	17.0262	12.76965
337	1	11.3508	2.8377	12.76965
338	1	14.1885	0	12.76965
339	1	11.3508	8.5131	12.76965
340	1	14.1885	5.6754	12.76965
341	1	11.3508	14.1885	12.76965
342	1	14.1885	11.3508	12.76965
343	1	11.3508	19.8639	12.76965
344	1	14.1885	17.0262	12.76965
345	1	17.0262	2.8377	12.76965
346	1	19.8639	0	12.76965
347	1	17.0262	8.5131	12.76965
348	1	19.8639	5.6754	12.76965
349	1	17.0262	14.1885	12.76965
350	1	19.8639	11.3508	12.76965
351	1	17.0262	19.8639	12.76965
352	1	19.8639	17.0262	12.76965
353	1	4.25655	1.41885	14.046615
354	1	1.41885	4.25655	14.046615
355	1	4.25655	7.09425	14.046615
356	1	1.41885	9.93195	14.046615
357	1	4.25655	12.76965	14.046615
358	1	1.41885	15.60735	14.046615
359	1	4.25655	18.44505	14.046615
360	1	1.41885	21.28275	14.046615
361	1	9.93195	1.41885	14.046615
362	1	7.09425	4.25655	14.046615
363	1	9.93195	7.09425	14.046615
364	1	7.09425	9.93195	14.046615
365	1	9.93195	12.76965	14.046615
366	1	7.09425	15.60735	14.046615
367	1	9.93195	18.44505	14.046615
368	1	7.09425	21.28275	14.046615
369	1	15.60735	1.41885	14.046615
370	1	12.76965	4.25655	14.046615
371	1	15.60735	7.09425	14.046615
372	1	12.76965	9.93195	14.046615
373	1	15.60735	12.76965	14.046615
374	1	12.76965	15.60735	14.046615
375	1	15.60735	18.44505	14.046615
376	1	12.76965	21.28275	14.046615
377	1	21.28275	1.41885	14.046615
378	1	18.44505	4.25655	14.046615
379	1	21.28275	7.09425	14.046615
380	1	18.44505	9.93195	14.046615
381	1	21.28275	12.76965	14.046615
382	1	18.44505	15.60735	14.046615
383	1	21.28275	18.44505	14.046615
384	1	18.44505	21.28275	14.046615
385	1	0	0	15.32358
386	1	2.8377	2.8377	15.32358
387	1	0	5.6754	15.32358
388	1	2.8377	8.5131	15.32358
389	1	0	11.3508	15.32358
390	1	2.8377	14.1885	15.32358
391	1	0	17.0262	15.32358
392	1	2.8377	19.8639	15.32358
393	1	5.6754	0	15.32358
394	1	8.5131	2.8377	15.32358
395	1	5.6754	5.6754	15.32358
396	1	8.5131	8.5131	15.32358
397	1	5.6754	11.3508	15.32358
398	1	8.5131	14.1885	15.32358
399	1	5.6754	17.0262	15.32358
400	1	8.5131	19.8639	15.32358
401	1	11.3508	0	15.32358
402	1	14.1885	2.8377	15.32358
403	1	11.3508	5.6754	15.32358
404	1	14.1885	8.5131	15.32358
405	1	11.3508	11.3508	15.32358
406	1	14.1885	14.1885	15.32358
407	1	11.3508	17.0262	15.32358
408	1	14.1885	19.8639	15.32358
409	1	17.0262	0	15.32358
410	1	19.8639	2.8377	15.32358
411	1	17.0262	5.6754	15.32358
412	1	19.8639	8.5131	15.32358
413	1	17.0262	11.3508	15.32358
414	1	19.8639	14.1885	15.32358
415	1	17.0262	17.0262	15.32358
416	1	19.8639	19.8639	15.32358
417	1	1.41885	1.41885	16.600545
418	1	4.25655	4.25655	16.600545
419	1	1.41885	7.09425	16.600545
420	1	4.25655	9.93195	16.600545
421	1	1.41885	12.76965	16.600545
422	1	4.25655	15.60735	16.600545
423	1	1.41885	18.44505	16.600545
424	1	4.25655	21.28275	16.600545
425	1	7.09425	1.41885	16.600545
426	1	9.93195	4.25655	16.600545
427	1	7.09425	7.09425	16.600545
428	1	9.93195	9.93195	16.600545
429	1	7.09425	12.76965	16.600545
430	1	9.93195	15.60735	16.600545
431	1	7.09425	18.44505	16.600545
432	1	9.93195	21.28275	16.600545
433	1	12.76965	1.41885	16.600545
434	1	15.60735	4.25655	16.600545
435	1	12.76965	7.09425	16.600545
436	1	15.60735	9.93195	16.600545
437	1	12.76965	12.76965	16.600545
438	1	15.60735	15.60735	16.600545
439	1	12.76965	18.44505	16.600545
440	1	15.60735	21.28275	16.600545
441	1	18.44505	1.41885	16.600545
442	1	21.28275	4.25655	16.600545
443	1	18.44505	7.09425	16.600545
444	1	21.28275	9.93195	16.600545
445	1	18.44505	12.76965	16.600545
446	1	21.28275	15.60735	16.600545
447	1	18.44505	18.44505	16.600545
448	1	21.28275	21.28275	16.600545
449	1	0	2.8377	17.87751
450	1	2.8377	0	17.87751
451	1	0	8.5131	17.87751
452	1	2.8377	5.6754	17.87751
453	1	0	14.1885	17.87751
454	1	2.8377	11.3508	17.87751
455	1	0	19.8639	17.87751
456	1	2.8377	17.0262	17.87751
457	1	5.6754	2.8377	17.87751
458	1	8.5131	0	17.87751
459	1	5.6754	8.5131	17.87751
460	1	8.5131	5.6754	17.87751
461	1	5.6754	14.1885	17.87751
462	1	8.5131	11.3508	17.87751
463	1	5.6754	19.8639	17.87751
464	1	8.5131	17.0262	17.87751
465	1	11.3508	2.8377	17.87751
466	1	14.1885	0	17.87751
467	1	11.3508	8.5131	17.87751
468	1	14.1885	5.6754	17.87751
469	1	11.3508	14.1885	17.87751
470	1	14.1885	11.3508	17.87751
471	1	11.3508	19.8639	17.87751
472	1	14.1885	17.0262	17.87751
473	1	17.0262	2.8377	17.87751
474	1	19.8639	0	17.87751
475	1	17.0262	8.5131	17.87751
476	1	19.8639	5.6754	17.87751
477	1	17.0262	14.1885	17.87751
478	1	19.8639	11.3508	17.87751
479	1	17.0262	19.8639	17.87751
480	1	19.8639	17.0262	17.87751
481	1	4.25655	1.41885	19.154475
482	1	1.41885	4.25655	19.154475
483	1	4.25655	7.09425	19.154475
484	1	1.41885	9.93195	19.154475
485	1	4.25655	12.76965	19.154475
486	1	1.41885	15.60735	19.154475
487	1	4.25655	18.44505	19.154475
488	1	1.41885	21.28275	19.154475
489	1	9.93195	1.41885	19.154475
490	1	7.09425	4.25655	19.154475
491	1	9.93195	7.09425	19.154475
492	1	7.09425	9.93195	19.154475
493	1	9.93195	12.76965	19.154475
494	1	7.09425	15.60735	19.154475
495	1	9.93195	18.44505	19.154475
496	1	7.09425	21.28275	19.154475
497	1	15.60735	1.41885	19.154475
498	1	12.76965	4.25655	19.154475
499	1	15.60735	7.09425	19.154475
500	1	12.76965	9.93195	19.154475
501	1	15.60735	12.76965	19.154475
502	1	12.76965	15.60735	19.154475
503	1	15.60735	18.44505	19.154475
504	1	12.76965	21.28275	19.154475
505	1	21.28275	1.41885	19.154475
506	1	18.44505	4.25655	19.154475
507	1	21.28275	7.09425	19.154475
508	1	18.44505	9.93195	19.154475
509	1	21.28275	12.76965	19.154475
510	1	18.44505	15.60735	19.154475
511	1	21.28275	18.44505	19.154475
512	1	18.44505	21.28275	19.154475
513	2	0	0	21.33144
514	2	1.8918	1.8918	21.33144
515	2	0	3.7836	21.33144
516	2	1.8918	5.6754	21.33144
517	2	0	7.5672	21.33144
518	2	1.8918	9.459	21.33144
519	2	0	11.3508	21.33144
520	2	1.8918	13.2426	21.33144
521	2	0	15.1344	21.33144
522	2	1.8918	17.0262	21.33144
523	2	0	18.918	21.33144
524	2	1.8918	20.8098	21.33144
525	2	3.7836	0	21.33144
526	2	5.6754	1.8918	21.33144
527	2	3.7836	3.7836	21.33144
528	2	5.6754	5.6754	21.33144
529	2	3.7836	7.5672	21.33144
530	2	5.6754	9.459	21.33144
531	2	3.7836	11.3508	21.33144
532	2	5.6754	13.2426	21.33144
533	2	3.7836	15.1344	21.33144
534	2	5.6754	17.0262	21.33144
535	2	3.7836	18.918	21.33144
536	2	5.6754	20.8098	21.33144
537	2	7.5672	0	21.33144
538	2	9.459	1.8918	21.33144
539	2	7.5672	3.7836	21.33144
540	2	9.459	5.6754	21.33144
541	2	7.5672	7.5672	21.33144
542	2	9.459	9.459	21.33144
543	2	7.5672	11.3508	21.33144
544	2	9.459	13.2426	21.33144
545	2	7.5672	15.1344	21.33144
546	2	9.459	17.0262	21.33144
547	2	7.5672	18.918	21.33144
548	2	9.459	20.8098	21.33144
549	2	11.3508	0	21.33144
550	2	13.2426	1.8918	21.33144
551	2	11.3508	3.7836	21.33144
552	2	13.2426	5.6754	21.33144
553	2	11.3508	7.5672	21.33144
554	2	13.2426	9.459	21.33144
555	2	11.3508	11.3508	21.33144
556	2	13.2426	13.2426	21.33144
557	2	11.3508	15.1344	21.33144
558	2	13.2426	17.0262	21.33144
559	2	11.3508	18.918	21.33144
560	2	13.2426	20.8098	21.33144
561	2	15.1344	0	21.33144
562	2	17.0262	1.8918	21.33144
563	2	15.1344	3.7836	21.33144
564	2	17.0262	5.6754	21.33144
565	2	15.1344	7.5672	21.33144
566	2	17.0262	9.459	21.33144
567	2	15.1344	11.3508	21.33144
568	2	17.0262	13.2426	21.33144
569	2	15.1344	15.1344	21.33144
570	2	17.0262	17.0262	21.33144
571	2	15.1344	18.918	21.33144
572	2	17.0262	20.8098	21.33144
573	2	18.918	0	21.33144
574	2	20.8098	1.8918	21.33144
575	2	18.918	3.7836	21.33144
576	2	20.8098	5.6754	21.33144
577	2	18.918	7.5672	21.33144
578	2	20.8098	9.459	21.33144
579	2	18.918	11.3508	21.33144
580	2	20.8098	13.2426	21.33144
581	2	18.918	15.1344	21.33144
582	2	20.8098	17.0262	21.33144
583	2	18.918	18.918	21.33144
584	2	20.8098	20.8098	21.33144
585	2	0	1.8918	23.03406
586	2	1.8918	0	23.03406
587	2	0	5.6754	23.03406
588	2	1.8918	3.7836	23.03406
589	2	0	9.459	23.03406
590	2	1.8918	7.5672	23.03406
591	2	0	13.2426	23.03406
592	2	1.8918	11.3508	23.03406
593	2	0	17.0262	23.03406
594	2	1.8918	15.1344	23.03406
595	2	0	20.8098	23.03406
596	2	1.8918	18.918	23.03406
597	2	3.7836	1.8918	23.03406
598	2	5.6754	0	23.03406
599	2	3.7836	5.6754	23.03406
600	2	5.6754	3.7836	23.03406
601	2	3.7836	9.459	23.03406
602	2	5.6754	7.5672	23.03406
603	2	3.7836	13.2426	23.03406
604	2	5.6754	11.3508	23.03406
605	2	3.7836	17.0262	23.03406
606	2	5.6754	15.1344	23.03406
607	2	3.7836	20.8098	23.03406
608	2	5.6754	18.918	23.03406
609	2	7.5672	1.8918	23.03406
610	2	9.459	0	23.03406
611	2	7.5672	5.6754	23.03406
612	2	9.459	3.7836	23.03406
613	2	7.5672	9.459	23.03406
614	2	9.459	7.5672	23.03406
615	2	7.5672	13.2426	23.03406
616	2	9.459	11.3508	23.03406
617	2	7.5672	17.0262	23.03406
618	2	9.459	15.1344	23.03406
619	2	7.5672	20.8098	23.03406
620	2	9.459	18.918	23.03406
621	2	11.3508	1.8918	23.03406
622	2	13.2426	0	23.03406
623	2	11.3508	5.6754	23.03406
624	2	13.2426	3.7836	23.03406
625	2	11.3508	9.459	23.03406
626	2	13.2426	7.5672	23.03406
627	2	11.3508	13.2426	23.03406
628	2	13.2426	11.3508	23.03406
629	2	11.3508	17.0262	23.03406
630	2	13.2426	15.1344	23.03406
631	2	11.3508	20.8098	23.03406
632	2	13.2426	18.918	23.03406
633	2	15.1344	1.8918	23.03406
634	2	17.0262	0	23.03406
635	2	15.1344	5.6754	23.03406
636	2	17.0262	3.7836	23.03406
637	2	15.1344	9.459	23.03406
638	2	17.0262	7.5672	23.03406
639	2	15.1344	13.2426	23.03406
640	2	17.0262	11.3508	23.03406
641	2	15.1344	17.0262	23.03406
642	2	17.0262	15.1344	23.03406
643	2	15.1344	20.8098	23.03406
644	2	17.0262	18.918	23.03406
645	2	18.918	1.8918	23.03406
646	2	20.8098	0	23.03406
647	2	18.918	5.6754	23.03406
648	2	20.8098	3.7836	23.03406
649	2	18.918	9.459	23.03406
650	2	20.8098	7.5672	23.03406
651	2	18.918	13.2426	23.03406
652	2	20.8098	11.3508	23.03406
653	2	18.918	17.0262	23.03406
654	2	20.8098	15.1344	23.03406
655	2	18.918	20.8098	23.03406
656	2	20.8098	18.918	23.03406
657	2	0	0	24.73668
658	2	1.8918	1.8918	24.73668
659	2	0	3.7836	24.73668
660	2	1.8918	5.6754	24.73668
661	2	0	7.5672	24.73668
662	2	1.8918	9.459	24.73668
663	2	0	11.3508	24.73668
664	2	1.8918	13.2426	24.73668
665	2	0	15.1344	24.73668
666	2	1.8918	17.0262	24.73668
667	2	0	18.918	24.73668
668	2	1.8918	20.8098	24.73668
669	2	3.7836	0	24.73668
670	2	5.6754	1.8918	24.73668
671	2	3.7836	3.7836	24.73668
672	2	5.6754	5.6754	24.73668
673	2	3.7836	7.5672	24.73668
674	2	5.6754	9.459	24.73668
675	2	3.7836	11.3508	24.73668
676	2	5.6754	13.2426	24.73668
677	2	3.7836	15.1344	24.73668
678	2	5.6754	17.0262	24.73668
679	2	3.7836	18.918	24.73668
680	2	5.6754	20.8098	24.73668
681	2	7.5672	0	24.73668
682	2	9.459	1.8918	24.73668
683	2	7.5672	3.7836	24.73668
684	2	9.459	5.6754	24.73668
685	2	7.5672	7.5672	24.73668
686	2	9.459	9.459	24.73668
687	2	7.5672	11.3508	24.73668
688	2	9.459	13.2426	24.73668
689	2	7.5672	15.1344	24.73668
690	2	9.459	17.0262	24.73668
691	2	7.5672	18.918	24.73668
692	2	9.459	20.8098	24.73668
693	2	11.3508	0	24.73668
694	2	13.2426	1.8918	24.73668
695	2	11.3508	3.7836	24.73668
696	2	13.2426	5.6754	24.73668
697	2	11.3508	7.5672	24.73668
698	2	13.2426	9.459	24.73668
699	2	11.3508	11.3508	24.73668
700	2	13.2426	13.2426	24.73668
701	2	11.3508	15.1344	24.73668
702	2	13.2426	17.0262	24.73668
703	2	11.3508	18.918	24.73668
704	2	13.2426	20.8098	24.73668
705	2	15.1344	0	24.73668
706	2	17.0262	1.8918	24.73668
707	2	15.1344	3.7836	24.73668
708	2	17.0262	5.6754	24.73668
709	2	15.1344	7.5672	24.73668
710	2	17.0262	9.459	24.73668
711	2	15.1344	11.3508	24.73668
712	2	17.0262	13.2426	24.73668
713	2	15.1344	15.1344	24.73668
714	2	17.0262	17.0262	24.73668
715	2	15.1344	18.918	24.73668
716	2	17.0262	20.8098	24.73668
717	2	18.918	0	24.73668
718	2	20.8098	1.8918	24.73668
719	2	18.918	3.7836	24.73668
720	2	20.8098	5.6754	24.73668
721	2	18.918	7.5672	24.73668
722	2	20.8098	9.459	24.73668
723	2	18.918	11.3508	24.73668
724	2	20.8098	13.2426	24.73668
725	2	18.918	15.1344	24.73668
726	2	20.8098	17.0262	24.73668
727	2	18.918	18.918	24.73668
728	2	20.8098	20.8098	24.73668
729	2	0	1.8918	26.4393
730	2	1.8918	0	26.4393
731	2	0	5.6754	26.4393
732	2	1.8918	3.7836	26.4393
733	2	0	9.459	26.4393
734	2	1.8918	7.5672	26.4393
735	2	0	13.2426	26.4393
736	2	1.8918	11.3508	26.4393
737	2	0	17.0262	26.4393
738	2	1.8918	15.1344	26.4393
739	2	0	20.8098	26.4393
740	2	1.8918	18.918	26.4393
741	2	3.7836	1.8918	26.4393
742	2	5.6754	0	26.4393
743	2	3.7836	5.6754	26.4393
744	2	5.6754	3.7836	26.4393
745	2	3.7836	9.459	26.4393
746	2	5.6754	7.5672	26.4393
747	2	3.7836	13.2426	26.4393
748	2	5.6754	11.3508	26.4393
749	2	3.7836	17.0262	26.4393
750	2	5.6754	15.1344	26.4393
751	2	3.7836	20.8098	26.4393
752	2	5.6754	18.918	26.4393
753	2	7.5672	1.8918	26.4393
754	2	9.459	0	26.4393
755	2	7.5672	5.6754	26.4393
756	2	9.459	3.7836	26.4393
757	2	7.5672	9.459	26.4393
758	2	9.459	7.5672	26.4393
759	2	7.5672	13.2426	26.4393
760	2	9.459	11.3508	26.4393
761	2	7.5672	17.0262	26.4393
762	2	9.459	15.1344	26.4393
763	2	7.5672	20.8098	26.4393
764	2	9.459	18.918	26.4393
765	2	11.3508	1.8918	26.4393
766	2	13.2426	0	26.4393
767	2	11.3508	5.6754	26.4393
768	2	13.2426	3.7836	26.4393
769	2	11.3508	9.459	26.4393
770	2	13.2426	7.5672	26.4393
771	2	11.3508	13.2426	26.4393
772	2	13.2426	11.3508	26.4393
773	2	11.3508	17.0262	26.4393
774	2	13.2426	15.1344	26.4393
775	2	11.3508	20.8098	26.4393
776	2	13.2426	18.918	26.4393
777	2	15.1344	1.8918	26.4393
778	2	17.0262	0	26.4393
779	2	15.1344	5.6754	26.4393
780	2	17.0262	3.7836	26.4393
781	2	15.1344	9.459	26.4393
782	2	17.0262	7.5672	26.4393
783	2	15.1344	13.2426	26.4393
784	2	17.0262	11.3508	26.4393
785	2	15.1344	17.0262	26.4393
786	2	17.0262	15.1344	26.4393
787	2	15.1344	20.8098	26.4393
788	2	17.0262	18.918	26.4393
789	2	18.918	1.8918	26.4393
790	2	20.8098	0	26.4393
791	2	18.918	5.6754	26.4393
792	2	20.8098	3.7836	26.4393
793	2	18.918	9.459	26.4393
794	2	20.8098	7.5672	26.4393
795	2	18.918	13.2426	26.4393
796	2	20.8098	11.3508	26.4393
797	2	18.918	17.0262	26.4393
798	2	20.8098	15.1344	26.4393
799	2	18.918	20.8098	26.4393
800	2	20.8098	18.918	26.4393
801	2	0	0	28.14192
802	2	1.8918	1.8918	28.14192
803	2	0	3.7836	28.14192
804	2	1.8918	5.6754	28.14192
805	2	0	7.5672	28.14192
806	2	1.8918	9.459	28.14192
807	2	0	11.3508	28.14192
808	2	1.8918	13.2426	28.14192
809	2	0	15.1344	28.14192
810	2	1.8918	17.0262	28.14192
811	2	0	18.918	28.14192
812	2	1.8918	20.8098	28.14192
813	2	3.7836	0	28.14192
814	2	5.6754	1.8918	28.14192
815	2	3.7836	3.7836	28.14192
816	2	5.6754	5.6754	28.14192
817	2	3.7836	7.5672	28.14192
818	2	5.6754	9.459	28.14192
819	2	3.7836	11.3508	28.14192
820	2	5.6754	13.2426	28.14192
821	2	3.7836	15.1344	28.14192
822	2	5.6754	17.0262	28.14192
823	2	3.7836	18.918	28.14192
824	2	5.6754	20.8098	28.14192
825	2	7.5672	0	28.14192
826	2	9.459	1.8918	28.14192
827	2	7.5672	3.7836	28.14192
828	2	9.459	5.6754	28.14192
829	2	7.5672	7.5672	28.14192
830	2	9.459	9.459	28.14192
831	2	7.5672	11.3508	28.14192
832	2	9.459	13.2426	28.14192
833	2	7.5672	15.1344	28.14192
834	2	9.459	17.0262	28.14192
835	2	7.5672	18.918	28.14192
836	2	9.459	20.8098	28.14192
837	2	11.3508	0	28.14192
838	2	13.2426	1.8918	28.14192
839	2	11.3508	3.7836	28.14192
840	2	13.2426	5.6754	28.14192
841	2	11.3508	7.5672	28.14192
842	2	13.2426	9.459	28.14192
843	2	11.3508	11.3508	28.14192
844	2	13.2426	13.2426	28.14192
845	2	11.3508	15.1344	28.14192
846	2	13.2426	17.0262	28.14192
847	2	11.3508	18.918	28.14192
848	2	13.2426	20.8098	28.14192
849	2	15.1344	0	28.14192
850	2	17.0262	1.8918	28.14192
851	2	15.1344	3.7836	28.14192
852	2	17.0262	5.6754	28.14192
853	2	15.1344	7.5672	28.14192
854	2	17.0262	9.459	28.14192
855	2	15.1344	11.3508	28.14192
856	2	17.0262	13.2426	28.14192
857	2	15.1344	15.1344	28.14192
858	2	17.0262	17.0262	28.14192
859	2	15.1344	18.918	28.14192
860	2	17.0262	20.8098	28.14192
861	2	18.918	0	28.14192
862	2	20.8098	1.8918	28.14192
863	2	18.918	3.7836	28.14192
864	2	20.8098	5.6754	28.14192
865	2	18.918	7.5672	28.14192
866	2	20.8098	9.459	28.14192
867	2	18.918	11.3508	28.14192
868	2	20.8098	13.2426	28.14192
869	2	18.918	15.1344	28.14192
870	2	20.8098	17.0262	28.14192
871	2	18.918	18.918	28.14192
872	2	20.8098	20.8098	28.14192
873	2	0	1.8918	29.84454
874	2	1.8918	0	29.84454
875	2	0	5.6754	29.84454
876	2	1.8918	3.7836	29.84454
877	2	0	9.459	29.84454
878	2	1.8918	7.5672	29.84454
879	2	0	13.2426	29.84454
880	2	1.8918	11.3508	29.84454
881	2	0	17.0262	29.84454
882	2	1.8918	15.1344	29.84454
883	2	0	20.8098	29.84454
884	2	1.8918	18.918	29.84454
885	2	3.7836	1.8918	29.84454
886	2	5.6754	0	29.84454
887	2	3.7836	5.6754	29.84454
888	2	5.6754	3.7836	29.84454
889	2	3.7836	9.459	29.84454
890	2	5.6754	7.5672	29.84454
891	2	3.7836	13.2426	29.84454
892	2	5.6754	11.3508	29.84454
893	2	3.7836	17.0262	29.84454
894	2	5.6754	15.1344	29.84454
895	2	3.7836	20.8098	29.84454
896	2	5.6754	18.918	29.84454
897	2	7.5672	1.8918	29.84454
898	2	9.459	0	29.84454
899	2	7.5672	5.6754	29.84454
900	2	9.459	3.7836	29.84454
901	2	7.5672	9.459	29.84454
902	2	9.459	7.5672	29.84454
903	2	7.5672	13.2426	29.84454
904	2	9.459	11.3508	29.84454
905	2	7.5672	17.0262	29.84454
906	2	9.459	15.1344	29.84454
907	2	7.5672	20.8098	29.84454
908	2	9.459	18.918	29.84454
909	2	11.3508	1.8918	29.84454
910	2	13.2426	0	29.84454
911	2	11.3508	5.6754	29.84454
912	2	13.2426	3.7836	29.84454
913	2	11.3508	9.459	29.84454
914	2	13.2426	7.5672	29.84454
915	2	11.3508	13.2426	29.84454
916	2	13.2426	11.3508	29.84454
917	2	11.3508	17.0262	29.84454
918	2	13.2426	15.1344	29.84454
919	2	11.3508	20.8098	29.84454
920	2	13.2426	18.918	29.84454
921	2	15.1344	1.8918	29.84454
922	2	17.0262	0	29.84454
923	2	15.1344	5.6754	29.84454
924	2	17.0262	3.7836	29.84454
925	2	15.1344	9.459	29.84454
926	2	17.0262	7.5672	29.84454
927	2	15.1344	13.2426	29.84454
928	2	17.0262	11.3508	29.84454
929	2	15.1344	17.0262	29.84454
930	2	17.0262	15.1344	29.84454
931	2	15.1344	20.8098	29.84454
932	2	17.0262	18.918	29.84454
933	2	18.918	1.8918	29.84454
934	2	20.8098	0	29.84454
935	2	18.918	5.6754	29.84454
936	2	20.8098	3.7836	29.84454
937	2	18.918	9.459	29.84454
938	2	20.8098	7.5672	29.84454
939	2	18.918	13.2426	29.84454
940	2	20.8098	11.3508	29.84454
941	2	18.918	17.0262	29.84454
942	2	20.8098	15.1344	29.84454
943	2	18.918	20.8098	29.84454
944	2	20.8098	18.918	29.84454
945	2	0	0	31.54716
946	2	1.8918	1.8918	31.54716
947	2	0	3.7836	31.54716
948	2	1.8918	5.6754	31.54716
949	2	0	7.5672	31.54716
950	2	1.8918	9.459	31.54716
951	2	0	11.3508	31.54716
952	2	1.8918	13.2426	31.54716
953	2	0	15.1344	31.54716
954	2	1.8918	17.0262	31.54716
955	2	0	18.918	31.54716
956	2	1.8918	20.8098	31.54716
957	2	3.7836	0	31.54716
958	2	5.6754	1.8918	31.54716
959	2	3.7836	3.7836	31.54716
960	2	5.6754	5.6754	31.54716
961	2	3.7836	7.5672	31.54716
962	2	5.6754	9.459	31.54716
963	2	3.7836	11.3508	31.54716
964	2	5.6754	13.2426	31.54716
965	2	3.7836	15.1344	31.54716
966	2	5.6754	17.0262	31.54716
967	2	3.7836	18.918	31.54716
968	2	5.6754	20.8098	31.54716
969	2	7.5672	0	31.54716
970	2	9.459	1.8918	31.54716
971	2	7.5672	3.7836	31.54716
972	2	9.459	5.6754	31.54716
973	2	7.5672	7.5672	31.54716
974	2	9.459	9.459	31.54716
975	2	7.5672	11.3508	31.54716
976	2	9.459	13.2426	31.54716
977	2	7.5672	15.1344	31.54716
978	2	9.459	17.0262	31.54716
979	2	7.5672	18.918	31.54716
980	2	9.459	20.8098	31.54716
981	2	11.3508	0	31.54716
982	2	13.2426	1.8918	31.54716
983	2	11.3508	3.7836	31.54716
984	2	13.2426	5.6754	31.54716
985	2	11.3508	7.5672	31.54716
986	2	13.2426	9.459	31.54716
987	2	11.3508	11.3508	31.54716
988	2	13.2426	13.2426	31.54716
989	2	11.3508	15.1344	31.54716
990	2	13.2426	17.0262	31.54716
991	2	11.3508	18.918	31.54716
992	2	13.2426	20.8098	31.54716
993	2	15.1344	0	31.54716
994	2	17.0262	1.8918	31.54716
995	2	15.1344	3.7836	31.54716
996	2	17.0262	5.6754	31.54716
997	2	15.1344	7.5672	31.54716
998	2	17.0262	9.459	31.54716
999	2	15.1344	11.3508	31.54716
1000	2	17.0262	13.2426	31.54716
1001	2	15.1344	15.1344	31.54716
1002	2	17.0262	17.0262	31.54716
1003	2	15.1344	18.918	31.54716
1004	2	17.0262	20.8098	31.54716
1005	2	18.918	0	31.54716
1006	2	20.8098	1.8918	31.54716
1007	2	18.918	3.7836	31.54716
1008	2	20.8098	5.6754	31.54716
1009	2	18.918	7.5672	31.54716
1010	2	20.8098	9.459	31.54716
1011	2	18.918	11.3508	31.54716
1012	2	20.8098	13.2426	31.54716
1013	2	18.918	15.1344	31.54716
1014	2	20.8098	17.0262	31.54716
1015	2	18.918	18.918	31.54716
1016	2	20.8098	20.8098	31.54716
1017	2	0	1.8918	33.24978
1018	2	1.8918	0	33.24978